 Gaussian 16, Revision B.01,
 Gaussian 16:  ES64L-G16RevB.01 20-Dec-2017

 -----------------------------------------------------
 #UB3LYP/6-311++G** guess=(mix,always) scf=qc NMR=GIAO
 -----------------------------------------------------

 ---------------------------------------------------------------------
 Adam Luxon's singlet p-benzyne structure optimized at SF-CCSD/cc-pVTZ
 ---------------------------------------------------------------------
 Symbolic Z-matrix:
 Charge =  0 Multiplicity = 1

                          Input orientation:
 ---------------------------------------------------------------------
 Center     Atomic      Atomic             Coordinates (Angstroms)
 Number     Number       Type             X           Y           Z
 ---------------------------------------------------------------------
      1          6           0        2.281170   -1.338390    0.000000
      2          1           0        4.056127   -2.323551    0.000000
      3          6           0        0.000000   -2.532775    0.000000
      4          6           0       -2.281170   -1.338390    0.000000
      5          1           0       -4.056127   -2.323551    0.000000
      6          6           0        2.281170    1.338390    0.000000
      7          1           0        4.056127    2.323551    0.000000
      8          6           0        0.000000    2.532775    0.000000
      9          6           0       -2.281170    1.338390    0.000000
     10          1           0       -4.056127    2.323551    0.000000
     11          0           0        0.000000    0.000000   -1.889726
     12          0           0        0.000000    0.000000    0.000000
     13          0           0        0.000000    0.000000    1.889726
 ---------------------------------------------------------------------

 SCF Done:  E(UB3LYP) =  -229.307674952     a.u. after   24 cycles

      1  C    Isotropic =  -999.4912   Anisotropy =   612.4289

      2  H    Isotropic =    13.9429   Anisotropy =    12.9178

      3  C    Isotropic = -2411.1719   Anisotropy =   424.1192

      4  C    Isotropic =  -999.4912   Anisotropy =   612.4289

      5  H    Isotropic =    13.9429   Anisotropy =    12.9178

      6  C    Isotropic =  -999.4912   Anisotropy =   612.4289

      7  H    Isotropic =    13.9429   Anisotropy =    12.9178

      8  C    Isotropic = -2411.1719   Anisotropy =   424.1192

      9  C    Isotropic =  -999.4912   Anisotropy =   612.4289

     10  H    Isotropic =    13.9429   Anisotropy =    12.9178

     11  Bq   Isotropic =    -0.1592   Anisotropy =     7.4680

     12  Bq   Isotropic =    -2.5557   Anisotropy =    18.0673

     13  Bq   Isotropic =    -0.1592   Anisotropy =     7.4680

 Alpha  occ. eigenvalues --  -10.36215 -10.36215 -10.36215 -10.36214 -10.33926
 Alpha  occ. eigenvalues --  -10.33925  -0.61057  -0.59417  -0.59284  -0.56094
 Alpha  occ. eigenvalues --   -0.54750  -0.52926  -0.31036  -0.30982  -0.30090
 Alpha  occ. eigenvalues --   -0.29480  -0.28774  -0.26201  -0.25880  -0.25493
 Alpha virt. eigenvalues --   -0.18803  -0.17831  -0.17613  -0.16409  -0.15882
 Alpha virt. eigenvalues --   -0.15357  -0.12919  -0.12523  -0.11023  -0.10166
 Alpha virt. eigenvalues --   -0.09034  -0.08376  -0.08152  -0.06359   0.03156

  Beta  occ. eigenvalues --  -10.36215 -10.36215 -10.36215 -10.36214 -10.33926
  Beta  occ. eigenvalues --  -10.33925  -0.61057  -0.59417  -0.59284  -0.56094
  Beta  occ. eigenvalues --   -0.54750  -0.52926  -0.31036  -0.30982  -0.30090
  Beta  occ. eigenvalues --   -0.29480  -0.28774  -0.26201  -0.25880  -0.25493
  Beta virt. eigenvalues --   -0.18803  -0.17831  -0.17613  -0.16409  -0.15882
  Beta virt. eigenvalues --   -0.15357  -0.12919  -0.12523  -0.11023  -0.10166
  Beta virt. eigenvalues --   -0.09034  -0.08376  -0.08152  -0.06359   0.03156

 Mulliken charges and spin densities:
               1          2
     1  C   -0.015601   0.000000
     2  H   -0.005370   0.000000
     3  C    0.041941   0.000000
     4  C   -0.015601   0.000000
     5  H   -0.005370   0.000000
     6  C   -0.015601   0.000000
     7  H   -0.005370   0.000000
     8  C    0.041941   0.000000
     9  C   -0.015601   0.000000
    10  H   -0.005370   0.000000
    11  Bq   0.000000   0.000000
    12  Bq   0.000000   0.000000
    13  Bq   0.000000   0.000000
 Sum of Mulliken charges =   0.00000   0.00000

 Dipole moment (field-independent basis, Debye):
    X=              0.0000    Y=              0.0000    Z=              0.0000  Tot=              0.0000
 Quadrupole moment (field-independent basis, Debye-Ang):
   XX=            -45.1975   YY=            -40.7571   ZZ=            -44.8395
   XY=              0.0000   XZ=              0.0000   YZ=              0.0000

 Normal termination of Gaussian 16 at Wed Apr  6 16:42:31 2022.
